+ 2 0 1 tcp 40 ------- 2 0.0.0.0 1.0.2.0 0 12
- 2 0 1 tcp 40 ------- 2 0.0.0.0 1.0.2.0 0 12
+ 2 0 1 tcp 1040 ------- 2 0.0.0.0 1.0.2.0 1 13
- 2.000064 0 1 tcp 1040 ------- 2 0.0.0.0 1.0.2.0 1 13
r 2.002064 0 1 tcp 40 ------- 2 0.0.0.0 1.0.2.0 0 12
+ 2.002064 1 3 tcp 40 ------- 2 0.0.0.0 1.0.2.0 0 12
- 2.002064 1 3 tcp 40 ------- 2 0.0.0.0 1.0.2.0 0 12
r 2.003728 0 1 tcp 1040 ------- 2 0.0.0.0 1.0.2.0 1 13
+ 2.003728 1 3 tcp 1040 ------- 2 0.0.0.0 1.0.2.0 1 13
- 2.003728 1 3 tcp 1040 ------- 2 0.0.0.0 1.0.2.0 1 13
r 2.004128 1 3 tcp 40 ------- 2 0.0.0.0 1.0.2.0 0 12
r 2.007392 1 3 tcp 1040 ------- 2 0.0.0.0 1.0.2.0 1 13
r 2.008939052 _6_ AGT  --- 12 tcp 40 [13a 3 0 800] ------- [0:0 4194306:0 29 4194306] [0 0] 1 0
s 2.008939052 _6_ AGT  --- 14 ack 40 [0 0 0 0] ------- [4194306:0 0:0 32 0] [0 0] 0 0
+ 2.011043 3 1 ack 60 ------- 2 1.0.2.0 0.0.0.0 0 14
- 2.011043 3 1 ack 60 ------- 2 1.0.2.0 0.0.0.0 0 14
r 2.013139 3 1 ack 60 ------- 2 1.0.2.0 0.0.0.0 0 14
+ 2.013139 1 0 ack 60 ------- 2 1.0.2.0 0.0.0.0 0 14
- 2.013139 1 0 ack 60 ------- 2 1.0.2.0 0.0.0.0 0 14
r 2.015235 1 0 ack 60 ------- 2 1.0.2.0 0.0.0.0 0 14
+ 2.015235 0 1 tcp 1040 ------- 2 0.0.0.0 1.0.2.0 2 15
- 2.015235 0 1 tcp 1040 ------- 2 0.0.0.0 1.0.2.0 2 15
+ 2.015235 0 1 tcp 1040 ------- 2 0.0.0.0 1.0.2.0 3 16
- 2.016899 0 1 tcp 1040 ------- 2 0.0.0.0 1.0.2.0 3 16
r 2.018899 0 1 tcp 1040 ------- 2 0.0.0.0 1.0.2.0 2 15
+ 2.018899 1 3 tcp 1040 ------- 2 0.0.0.0 1.0.2.0 2 15
- 2.018899 1 3 tcp 1040 ------- 2 0.0.0.0 1.0.2.0 2 15
r 2.020563 0 1 tcp 1040 ------- 2 0.0.0.0 1.0.2.0 3 16
+ 2.020563 1 3 tcp 1040 ------- 2 0.0.0.0 1.0.2.0 3 16
- 2.020563 1 3 tcp 1040 ------- 2 0.0.0.0 1.0.2.0 3 16
r 2.021207097 _6_ AGT  --- 13 tcp 1040 [13a 3 0 800] ------- [0:0 4194306:0 29 4194306] [1 0] 1 0
s 2.021207097 _6_ AGT  --- 17 ack 40 [0 0 0 0] ------- [4194306:0 0:0 32 0] [1 0] 0 0
r 2.022563 1 3 tcp 1040 ------- 2 0.0.0.0 1.0.2.0 2 15
+ 2.023251 3 1 ack 60 ------- 2 1.0.2.0 0.0.0.0 1 17
- 2.023251 3 1 ack 60 ------- 2 1.0.2.0 0.0.0.0 1 17
r 2.024227 1 3 tcp 1040 ------- 2 0.0.0.0 1.0.2.0 3 16
r 2.025347 3 1 ack 60 ------- 2 1.0.2.0 0.0.0.0 1 17
+ 2.025347 1 0 ack 60 ------- 2 1.0.2.0 0.0.0.0 1 17
- 2.025347 1 0 ack 60 ------- 2 1.0.2.0 0.0.0.0 1 17
r 2.027443 1 0 ack 60 ------- 2 1.0.2.0 0.0.0.0 1 17
+ 2.027443 0 1 tcp 1040 ------- 2 0.0.0.0 1.0.2.0 4 18
- 2.027443 0 1 tcp 1040 ------- 2 0.0.0.0 1.0.2.0 4 18
+ 2.027443 0 1 tcp 1040 ------- 2 0.0.0.0 1.0.2.0 5 19
- 2.029107 0 1 tcp 1040 ------- 2 0.0.0.0 1.0.2.0 5 19
r 2.031107 0 1 tcp 1040 ------- 2 0.0.0.0 1.0.2.0 4 18
+ 2.031107 1 3 tcp 1040 ------- 2 0.0.0.0 1.0.2.0 4 18
- 2.031107 1 3 tcp 1040 ------- 2 0.0.0.0 1.0.2.0 4 18
r 2.032771 0 1 tcp 1040 ------- 2 0.0.0.0 1.0.2.0 5 19
+ 2.032771 1 3 tcp 1040 ------- 2 0.0.0.0 1.0.2.0 5 19
- 2.032771 1 3 tcp 1040 ------- 2 0.0.0.0 1.0.2.0 5 19
r 2.033155142 _6_ AGT  --- 15 tcp 1040 [13a 3 0 800] ------- [0:0 4194306:0 29 4194306] [2 0] 1 0
s 2.033155142 _6_ AGT  --- 20 ack 40 [0 0 0 0] ------- [4194306:0 0:0 32 0] [2 0] 0 0
r 2.034771 1 3 tcp 1040 ------- 2 0.0.0.0 1.0.2.0 4 18
+ 2.035219 3 1 ack 60 ------- 2 1.0.2.0 0.0.0.0 2 20
- 2.035219 3 1 ack 60 ------- 2 1.0.2.0 0.0.0.0 2 20
r 2.036435 1 3 tcp 1040 ------- 2 0.0.0.0 1.0.2.0 5 19
r 2.037315 3 1 ack 60 ------- 2 1.0.2.0 0.0.0.0 2 20
+ 2.037315 1 0 ack 60 ------- 2 1.0.2.0 0.0.0.0 2 20
- 2.037315 1 0 ack 60 ------- 2 1.0.2.0 0.0.0.0 2 20
r 2.039411 1 0 ack 60 ------- 2 1.0.2.0 0.0.0.0 2 20
+ 2.039411 0 1 tcp 1040 ------- 2 0.0.0.0 1.0.2.0 6 21
- 2.039411 0 1 tcp 1040 ------- 2 0.0.0.0 1.0.2.0 6 21
+ 2.039411 0 1 tcp 1040 ------- 2 0.0.0.0 1.0.2.0 7 22
- 2.041075 0 1 tcp 1040 ------- 2 0.0.0.0 1.0.2.0 7 22
r 2.043075 0 1 tcp 1040 ------- 2 0.0.0.0 1.0.2.0 6 21
+ 2.043075 1 3 tcp 1040 ------- 2 0.0.0.0 1.0.2.0 6 21
- 2.043075 1 3 tcp 1040 ------- 2 0.0.0.0 1.0.2.0 6 21
r 2.044739 0 1 tcp 1040 ------- 2 0.0.0.0 1.0.2.0 7 22
+ 2.044739 1 3 tcp 1040 ------- 2 0.0.0.0 1.0.2.0 7 22
- 2.044739 1 3 tcp 1040 ------- 2 0.0.0.0 1.0.2.0 7 22
r 2.045183186 _6_ AGT  --- 16 tcp 1040 [13a 3 0 800] ------- [0:0 4194306:0 29 4194306] [3 0] 1 0
s 2.045183186 _6_ AGT  --- 23 ack 40 [0 0 0 0] ------- [4194306:0 0:0 32 0] [3 0] 0 0
r 2.046739 1 3 tcp 1040 ------- 2 0.0.0.0 1.0.2.0 6 21
+ 2.047307 3 1 ack 60 ------- 2 1.0.2.0 0.0.0.0 3 23
- 2.047307 3 1 ack 60 ------- 2 1.0.2.0 0.0.0.0 3 23
r 2.048403 1 3 tcp 1040 ------- 2 0.0.0.0 1.0.2.0 7 22
r 2.049403 3 1 ack 60 ------- 2 1.0.2.0 0.0.0.0 3 23
+ 2.049403 1 0 ack 60 ------- 2 1.0.2.0 0.0.0.0 3 23
- 2.049403 1 0 ack 60 ------- 2 1.0.2.0 0.0.0.0 3 23
r 2.051499 1 0 ack 60 ------- 2 1.0.2.0 0.0.0.0 3 23
+ 2.051499 0 1 tcp 1040 ------- 2 0.0.0.0 1.0.2.0 8 24
- 2.051499 0 1 tcp 1040 ------- 2 0.0.0.0 1.0.2.0 8 24
+ 2.051499 0 1 tcp 1040 ------- 2 0.0.0.0 1.0.2.0 9 25
- 2.053163 0 1 tcp 1040 ------- 2 0.0.0.0 1.0.2.0 9 25
r 2.055163 0 1 tcp 1040 ------- 2 0.0.0.0 1.0.2.0 8 24
+ 2.055163 1 3 tcp 1040 ------- 2 0.0.0.0 1.0.2.0 8 24
- 2.055163 1 3 tcp 1040 ------- 2 0.0.0.0 1.0.2.0 8 24
r 2.056827 0 1 tcp 1040 ------- 2 0.0.0.0 1.0.2.0 9 25
+ 2.056827 1 3 tcp 1040 ------- 2 0.0.0.0 1.0.2.0 9 25
- 2.056827 1 3 tcp 1040 ------- 2 0.0.0.0 1.0.2.0 9 25
r 2.057351231 _6_ AGT  --- 18 tcp 1040 [13a 3 0 800] ------- [0:0 4194306:0 29 4194306] [4 0] 1 0
s 2.057351231 _6_ AGT  --- 26 ack 40 [0 0 0 0] ------- [4194306:0 0:0 32 0] [4 0] 0 0
r 2.058827 1 3 tcp 1040 ------- 2 0.0.0.0 1.0.2.0 8 24
+ 2.059435 3 1 ack 60 ------- 2 1.0.2.0 0.0.0.0 4 26
- 2.059435 3 1 ack 60 ------- 2 1.0.2.0 0.0.0.0 4 26
r 2.060491 1 3 tcp 1040 ------- 2 0.0.0.0 1.0.2.0 9 25
r 2.061531 3 1 ack 60 ------- 2 1.0.2.0 0.0.0.0 4 26
+ 2.061531 1 0 ack 60 ------- 2 1.0.2.0 0.0.0.0 4 26
- 2.061531 1 0 ack 60 ------- 2 1.0.2.0 0.0.0.0 4 26
r 2.063627 1 0 ack 60 ------- 2 1.0.2.0 0.0.0.0 4 26
+ 2.063627 0 1 tcp 1040 ------- 2 0.0.0.0 1.0.2.0 10 27
- 2.063627 0 1 tcp 1040 ------- 2 0.0.0.0 1.0.2.0 10 27
+ 2.063627 0 1 tcp 1040 ------- 2 0.0.0.0 1.0.2.0 11 28
- 2.065291 0 1 tcp 1040 ------- 2 0.0.0.0 1.0.2.0 11 28
r 2.067291 0 1 tcp 1040 ------- 2 0.0.0.0 1.0.2.0 10 27
+ 2.067291 1 3 tcp 1040 ------- 2 0.0.0.0 1.0.2.0 10 27
- 2.067291 1 3 tcp 1040 ------- 2 0.0.0.0 1.0.2.0 10 27
r 2.068955 0 1 tcp 1040 ------- 2 0.0.0.0 1.0.2.0 11 28
+ 2.068955 1 3 tcp 1040 ------- 2 0.0.0.0 1.0.2.0 11 28
- 2.068955 1 3 tcp 1040 ------- 2 0.0.0.0 1.0.2.0 11 28
r 2.069579276 _6_ AGT  --- 19 tcp 1040 [13a 3 0 800] ------- [0:0 4194306:0 29 4194306] [5 0] 1 0
s 2.069579276 _6_ AGT  --- 29 ack 40 [0 0 0 0] ------- [4194306:0 0:0 32 0] [5 0] 0 0
r 2.070955 1 3 tcp 1040 ------- 2 0.0.0.0 1.0.2.0 10 27
+ 2.071743 3 1 ack 60 ------- 2 1.0.2.0 0.0.0.0 5 29
- 2.071743 3 1 ack 60 ------- 2 1.0.2.0 0.0.0.0 5 29
r 2.072619 1 3 tcp 1040 ------- 2 0.0.0.0 1.0.2.0 11 28
r 2.073839 3 1 ack 60 ------- 2 1.0.2.0 0.0.0.0 5 29
+ 2.073839 1 0 ack 60 ------- 2 1.0.2.0 0.0.0.0 5 29
- 2.073839 1 0 ack 60 ------- 2 1.0.2.0 0.0.0.0 5 29
r 2.075935 1 0 ack 60 ------- 2 1.0.2.0 0.0.0.0 5 29
+ 2.075935 0 1 tcp 1040 ------- 2 0.0.0.0 1.0.2.0 12 30
- 2.075935 0 1 tcp 1040 ------- 2 0.0.0.0 1.0.2.0 12 30
+ 2.075935 0 1 tcp 1040 ------- 2 0.0.0.0 1.0.2.0 13 31
- 2.077599 0 1 tcp 1040 ------- 2 0.0.0.0 1.0.2.0 13 31
r 2.079599 0 1 tcp 1040 ------- 2 0.0.0.0 1.0.2.0 12 30
+ 2.079599 1 3 tcp 1040 ------- 2 0.0.0.0 1.0.2.0 12 30
- 2.079599 1 3 tcp 1040 ------- 2 0.0.0.0 1.0.2.0 12 30
r 2.081263 0 1 tcp 1040 ------- 2 0.0.0.0 1.0.2.0 13 31
+ 2.081263 1 3 tcp 1040 ------- 2 0.0.0.0 1.0.2.0 13 31
- 2.081263 1 3 tcp 1040 ------- 2 0.0.0.0 1.0.2.0 13 31
r 2.081707321 _6_ AGT  --- 21 tcp 1040 [13a 3 0 800] ------- [0:0 4194306:0 29 4194306] [6 0] 1 0
s 2.081707321 _6_ AGT  --- 32 ack 40 [0 0 0 0] ------- [4194306:0 0:0 32 0] [6 0] 0 0
r 2.083263 1 3 tcp 1040 ------- 2 0.0.0.0 1.0.2.0 12 30
r 2.084927 1 3 tcp 1040 ------- 2 0.0.0.0 1.0.2.0 13 31
r 2.092437350 _6_ AGT  --- 22 tcp 1040 [13a 3 0 800] ------- [0:0 4194306:0 29 4194306] [7 0] 1 0
s 2.092437350 _6_ AGT  --- 33 ack 40 [0 0 0 0] ------- [4194306:0 0:0 32 0] [7 0] 0 0
s 2.100000000 _5_ AGT  --- 34 tcp 40 [0 0 0 0] ------- [4194305:0 0:1 32 0] [0 0] 0 0
s 2.100000000 _5_ AGT  --- 35 tcp 1040 [0 0 0 0] ------- [4194305:0 0:1 32 0] [1 0] 0 0
r 2.102261380 _6_ AGT  --- 24 tcp 1040 [13a 3 0 800] ------- [0:0 4194306:0 29 4194306] [8 0] 1 0
s 2.102261380 _6_ AGT  --- 36 ack 40 [0 0 0 0] ------- [4194306:0 0:0 32 0] [8 0] 0 0
+ 2.104305 3 1 tcp 60 ------- 2 1.0.1.0 0.0.0.1 0 34
- 2.104305 3 1 tcp 60 ------- 2 1.0.1.0 0.0.0.1 0 34
r 2.106401 3 1 tcp 60 ------- 2 1.0.1.0 0.0.0.1 0 34
+ 2.106401 1 0 tcp 60 ------- 2 1.0.1.0 0.0.0.1 0 34
- 2.106401 1 0 tcp 60 ------- 2 1.0.1.0 0.0.0.1 0 34
r 2.108497 1 0 tcp 60 ------- 2 1.0.1.0 0.0.0.1 0 34
+ 2.108497 0 1 ack 40 ------- 2 0.0.0.1 1.0.1.0 0 37
- 2.108497 0 1 ack 40 ------- 2 0.0.0.1 1.0.1.0 0 37
r 2.110561 0 1 ack 40 ------- 2 0.0.0.1 1.0.1.0 0 37
+ 2.110561 1 3 ack 40 ------- 2 0.0.0.1 1.0.1.0 0 37
- 2.110561 1 3 ack 40 ------- 2 0.0.0.1 1.0.1.0 0 37
r 2.112625 1 3 ack 40 ------- 2 0.0.0.1 1.0.1.0 0 37
r 2.114589425 _6_ AGT  --- 25 tcp 1040 [13a 3 0 800] ------- [0:0 4194306:0 29 4194306] [9 0] 1 0
s 2.114589425 _6_ AGT  --- 38 ack 40 [0 0 0 0] ------- [4194306:0 0:0 32 0] [9 0] 0 0
+ 2.124733 3 1 tcp 1060 ------- 2 1.0.1.0 0.0.0.1 1 35
- 2.124733 3 1 tcp 1060 ------- 2 1.0.1.0 0.0.0.1 1 35
+ 2.126917 3 1 ack 60 ------- 2 1.0.2.0 0.0.0.0 6 32
- 2.126917 3 1 ack 60 ------- 2 1.0.2.0 0.0.0.0 6 32
r 2.128429 3 1 tcp 1060 ------- 2 1.0.1.0 0.0.0.1 1 35
+ 2.128429 1 0 tcp 1060 ------- 2 1.0.1.0 0.0.0.1 1 35
- 2.128429 1 0 tcp 1060 ------- 2 1.0.1.0 0.0.0.1 1 35
+ 2.128922 3 1 ack 60 ------- 2 1.0.2.0 0.0.0.0 7 33
- 2.128922 3 1 ack 60 ------- 2 1.0.2.0 0.0.0.0 7 33
r 2.129013 3 1 ack 60 ------- 2 1.0.2.0 0.0.0.0 6 32
+ 2.129013 1 0 ack 60 ------- 2 1.0.2.0 0.0.0.0 6 32
- 2.130125 1 0 ack 60 ------- 2 1.0.2.0 0.0.0.0 6 32
r 2.131018 3 1 ack 60 ------- 2 1.0.2.0 0.0.0.0 7 33
+ 2.131018 1 0 ack 60 ------- 2 1.0.2.0 0.0.0.0 7 33
- 2.131018 1 0 ack 60 ------- 2 1.0.2.0 0.0.0.0 7 33
r 2.132125 1 0 tcp 1060 ------- 2 1.0.1.0 0.0.0.1 1 35
+ 2.132125 0 1 ack 40 ------- 2 0.0.0.1 1.0.1.0 1 39
- 2.132125 0 1 ack 40 ------- 2 0.0.0.1 1.0.1.0 1 39
r 2.132221 1 0 ack 60 ------- 2 1.0.2.0 0.0.0.0 6 32
+ 2.132221 0 1 tcp 1040 ------- 2 0.0.0.0 1.0.2.0 14 40
- 2.132221 0 1 tcp 1040 ------- 2 0.0.0.0 1.0.2.0 14 40
+ 2.132221 0 1 tcp 1040 ------- 2 0.0.0.0 1.0.2.0 15 41
r 2.133114 1 0 ack 60 ------- 2 1.0.2.0 0.0.0.0 7 33
+ 2.133114 0 1 tcp 1040 ------- 2 0.0.0.0 1.0.2.0 16 42
+ 2.133114 0 1 tcp 1040 ------- 2 0.0.0.0 1.0.2.0 17 43
- 2.133885 0 1 tcp 1040 ------- 2 0.0.0.0 1.0.2.0 15 41
r 2.134189 0 1 ack 40 ------- 2 0.0.0.1 1.0.1.0 1 39
+ 2.134189 1 3 ack 40 ------- 2 0.0.0.1 1.0.1.0 1 39
- 2.134189 1 3 ack 40 ------- 2 0.0.0.1 1.0.1.0 1 39
- 2.135549 0 1 tcp 1040 ------- 2 0.0.0.0 1.0.2.0 16 42
r 2.135885 0 1 tcp 1040 ------- 2 0.0.0.0 1.0.2.0 14 40
+ 2.135885 1 3 tcp 1040 ------- 2 0.0.0.0 1.0.2.0 14 40
- 2.135885 1 3 tcp 1040 ------- 2 0.0.0.0 1.0.2.0 14 40
r 2.136253 1 3 ack 40 ------- 2 0.0.0.1 1.0.1.0 1 39
D 2.136253447 _3_ IFQ  ARP 37 ack 40 [0 0 0 800] ------- [0:1 4194305:0 29 4194305] [0 0] 0 0
- 2.137213 0 1 tcp 1040 ------- 2 0.0.0.0 1.0.2.0 17 43
r 2.137549 0 1 tcp 1040 ------- 2 0.0.0.0 1.0.2.0 15 41
+ 2.137549 1 3 tcp 1040 ------- 2 0.0.0.0 1.0.2.0 15 41
- 2.137549 1 3 tcp 1040 ------- 2 0.0.0.0 1.0.2.0 15 41
r 2.138785529 _6_ AGT  --- 27 tcp 1040 [13a 3 0 800] ------- [0:0 4194306:0 29 4194306] [10 0] 1 0
s 2.138785529 _6_ AGT  --- 44 ack 40 [0 0 0 0] ------- [4194306:0 0:0 32 0] [10 0] 0 0
r 2.139213 0 1 tcp 1040 ------- 2 0.0.0.0 1.0.2.0 16 42
+ 2.139213 1 3 tcp 1040 ------- 2 0.0.0.0 1.0.2.0 16 42
- 2.139213 1 3 tcp 1040 ------- 2 0.0.0.0 1.0.2.0 16 42
r 2.139549 1 3 tcp 1040 ------- 2 0.0.0.0 1.0.2.0 14 40
+ 2.14079 3 1 ack 60 ------- 2 1.0.2.0 0.0.0.0 8 36
- 2.14079 3 1 ack 60 ------- 2 1.0.2.0 0.0.0.0 8 36
r 2.140877 0 1 tcp 1040 ------- 2 0.0.0.0 1.0.2.0 17 43
+ 2.140877 1 3 tcp 1040 ------- 2 0.0.0.0 1.0.2.0 17 43
- 2.140877 1 3 tcp 1040 ------- 2 0.0.0.0 1.0.2.0 17 43
r 2.141213 1 3 tcp 1040 ------- 2 0.0.0.0 1.0.2.0 15 41
+ 2.142794 3 1 ack 60 ------- 2 1.0.2.0 0.0.0.0 9 38
- 2.142794 3 1 ack 60 ------- 2 1.0.2.0 0.0.0.0 9 38
r 2.142877 1 3 tcp 1040 ------- 2 0.0.0.0 1.0.2.0 16 42
r 2.142886 3 1 ack 60 ------- 2 1.0.2.0 0.0.0.0 8 36
+ 2.142886 1 0 ack 60 ------- 2 1.0.2.0 0.0.0.0 8 36
- 2.142886 1 0 ack 60 ------- 2 1.0.2.0 0.0.0.0 8 36
r 2.144541 1 3 tcp 1040 ------- 2 0.0.0.0 1.0.2.0 17 43
+ 2.144798 3 1 ack 60 ------- 2 1.0.2.0 0.0.0.0 10 44
- 2.144798 3 1 ack 60 ------- 2 1.0.2.0 0.0.0.0 10 44
r 2.14489 3 1 ack 60 ------- 2 1.0.2.0 0.0.0.0 9 38
+ 2.14489 1 0 ack 60 ------- 2 1.0.2.0 0.0.0.0 9 38
- 2.14489 1 0 ack 60 ------- 2 1.0.2.0 0.0.0.0 9 38
r 2.144982 1 0 ack 60 ------- 2 1.0.2.0 0.0.0.0 8 36
+ 2.144982 0 1 tcp 1040 ------- 2 0.0.0.0 1.0.2.0 18 45
- 2.144982 0 1 tcp 1040 ------- 2 0.0.0.0 1.0.2.0 18 45
r 2.146894 3 1 ack 60 ------- 2 1.0.2.0 0.0.0.0 10 44
+ 2.146894 1 0 ack 60 ------- 2 1.0.2.0 0.0.0.0 10 44
- 2.146894 1 0 ack 60 ------- 2 1.0.2.0 0.0.0.0 10 44
r 2.146986 1 0 ack 60 ------- 2 1.0.2.0 0.0.0.0 9 38
+ 2.146986 0 1 tcp 1040 ------- 2 0.0.0.0 1.0.2.0 19 46
- 2.146986 0 1 tcp 1040 ------- 2 0.0.0.0 1.0.2.0 19 46
r 2.148646 0 1 tcp 1040 ------- 2 0.0.0.0 1.0.2.0 18 45
+ 2.148646 1 3 tcp 1040 ------- 2 0.0.0.0 1.0.2.0 18 45
- 2.148646 1 3 tcp 1040 ------- 2 0.0.0.0 1.0.2.0 18 45
r 2.14899 1 0 ack 60 ------- 2 1.0.2.0 0.0.0.0 10 44
+ 2.14899 0 1 tcp 1040 ------- 2 0.0.0.0 1.0.2.0 20 47
- 2.14899 0 1 tcp 1040 ------- 2 0.0.0.0 1.0.2.0 20 47
r 2.15065 0 1 tcp 1040 ------- 2 0.0.0.0 1.0.2.0 19 46
+ 2.15065 1 3 tcp 1040 ------- 2 0.0.0.0 1.0.2.0 19 46
- 2.15065 1 3 tcp 1040 ------- 2 0.0.0.0 1.0.2.0 19 46
r 2.15231 1 3 tcp 1040 ------- 2 0.0.0.0 1.0.2.0 18 45
r 2.152654 0 1 tcp 1040 ------- 2 0.0.0.0 1.0.2.0 20 47
+ 2.152654 1 3 tcp 1040 ------- 2 0.0.0.0 1.0.2.0 20 47
- 2.152654 1 3 tcp 1040 ------- 2 0.0.0.0 1.0.2.0 20 47
r 2.154314 1 3 tcp 1040 ------- 2 0.0.0.0 1.0.2.0 19 46
r 2.154821634 _6_ AGT  --- 28 tcp 1040 [13a 3 0 800] ------- [0:0 4194306:0 29 4194306] [11 0] 1 0
s 2.154821634 _6_ AGT  --- 48 ack 40 [0 0 0 0] ------- [4194306:0 0:0 32 0] [11 0] 0 0
r 2.156318 1 3 tcp 1040 ------- 2 0.0.0.0 1.0.2.0 20 47
+ 2.157006 3 1 ack 60 ------- 2 1.0.2.0 0.0.0.0 11 48
- 2.157006 3 1 ack 60 ------- 2 1.0.2.0 0.0.0.0 11 48
r 2.159102 3 1 ack 60 ------- 2 1.0.2.0 0.0.0.0 11 48
+ 2.159102 1 0 ack 60 ------- 2 1.0.2.0 0.0.0.0 11 48
- 2.159102 1 0 ack 60 ------- 2 1.0.2.0 0.0.0.0 11 48
r 2.161198 1 0 ack 60 ------- 2 1.0.2.0 0.0.0.0 11 48
+ 2.161198 0 1 tcp 1040 ------- 2 0.0.0.0 1.0.2.0 21 49
- 2.161198 0 1 tcp 1040 ------- 2 0.0.0.0 1.0.2.0 21 49
r 2.164862 0 1 tcp 1040 ------- 2 0.0.0.0 1.0.2.0 21 49
+ 2.164862 1 3 tcp 1040 ------- 2 0.0.0.0 1.0.2.0 21 49
- 2.164862 1 3 tcp 1040 ------- 2 0.0.0.0 1.0.2.0 21 49
r 2.167089678 _6_ AGT  --- 30 tcp 1040 [13a 3 0 800] ------- [0:0 4194306:0 29 4194306] [12 0] 1 0
s 2.167089678 _6_ AGT  --- 50 ack 40 [0 0 0 0] ------- [4194306:0 0:0 32 0] [12 0] 0 0
r 2.168526 1 3 tcp 1040 ------- 2 0.0.0.0 1.0.2.0 21 49
+ 2.169214 3 1 ack 60 ------- 2 1.0.2.0 0.0.0.0 12 50
- 2.169214 3 1 ack 60 ------- 2 1.0.2.0 0.0.0.0 12 50
r 2.17131 3 1 ack 60 ------- 2 1.0.2.0 0.0.0.0 12 50
+ 2.17131 1 0 ack 60 ------- 2 1.0.2.0 0.0.0.0 12 50
- 2.17131 1 0 ack 60 ------- 2 1.0.2.0 0.0.0.0 12 50
r 2.173406 1 0 ack 60 ------- 2 1.0.2.0 0.0.0.0 12 50
+ 2.173406 0 1 tcp 1040 ------- 2 0.0.0.0 1.0.2.0 22 51
- 2.173406 0 1 tcp 1040 ------- 2 0.0.0.0 1.0.2.0 22 51
r 2.17707 0 1 tcp 1040 ------- 2 0.0.0.0 1.0.2.0 22 51
+ 2.17707 1 3 tcp 1040 ------- 2 0.0.0.0 1.0.2.0 22 51
- 2.17707 1 3 tcp 1040 ------- 2 0.0.0.0 1.0.2.0 22 51
r 2.179377723 _6_ AGT  --- 31 tcp 1040 [13a 3 0 800] ------- [0:0 4194306:0 29 4194306] [13 0] 1 0
s 2.179377723 _6_ AGT  --- 52 ack 40 [0 0 0 0] ------- [4194306:0 0:0 32 0] [13 0] 0 0
r 2.180734 1 3 tcp 1040 ------- 2 0.0.0.0 1.0.2.0 22 51
+ 2.181542 3 1 ack 60 ------- 2 1.0.2.0 0.0.0.0 13 52
- 2.181542 3 1 ack 60 ------- 2 1.0.2.0 0.0.0.0 13 52
r 2.183638 3 1 ack 60 ------- 2 1.0.2.0 0.0.0.0 13 52
+ 2.183638 1 0 ack 60 ------- 2 1.0.2.0 0.0.0.0 13 52
- 2.183638 1 0 ack 60 ------- 2 1.0.2.0 0.0.0.0 13 52
r 2.185734 1 0 ack 60 ------- 2 1.0.2.0 0.0.0.0 13 52
+ 2.185734 0 1 tcp 1040 ------- 2 0.0.0.0 1.0.2.0 23 53
- 2.185734 0 1 tcp 1040 ------- 2 0.0.0.0 1.0.2.0 23 53
r 2.189398 0 1 tcp 1040 ------- 2 0.0.0.0 1.0.2.0 23 53
+ 2.189398 1 3 tcp 1040 ------- 2 0.0.0.0 1.0.2.0 23 53
- 2.189398 1 3 tcp 1040 ------- 2 0.0.0.0 1.0.2.0 23 53
r 2.193062 1 3 tcp 1040 ------- 2 0.0.0.0 1.0.2.0 23 53
r 2.193341768 _6_ AGT  --- 40 tcp 1040 [13a 3 0 800] ------- [0:0 4194306:0 29 4194306] [14 0] 1 0
s 2.193341768 _6_ AGT  --- 54 ack 40 [0 0 0 0] ------- [4194306:0 0:0 32 0] [14 0] 0 0
+ 2.2 2 1 tcp 40 ------- 2 0.0.2.0 1.0.2.1 0 55
- 2.2 2 1 tcp 40 ------- 2 0.0.2.0 1.0.2.1 0 55
+ 2.2 2 1 tcp 1040 ------- 2 0.0.2.0 1.0.2.1 1 56
- 2.200064 2 1 tcp 1040 ------- 2 0.0.2.0 1.0.2.1 1 56
r 2.202064 2 1 tcp 40 ------- 2 0.0.2.0 1.0.2.1 0 55
+ 2.202064 1 3 tcp 40 ------- 2 0.0.2.0 1.0.2.1 0 55
- 2.202064 1 3 tcp 40 ------- 2 0.0.2.0 1.0.2.1 0 55
r 2.203165798 _6_ AGT  --- 41 tcp 1040 [13a 3 0 800] ------- [0:0 4194306:0 29 4194306] [15 0] 1 0
s 2.203165798 _6_ AGT  --- 57 ack 40 [0 0 0 0] ------- [4194306:0 0:0 32 0] [15 0] 0 0
r 2.203728 2 1 tcp 1040 ------- 2 0.0.2.0 1.0.2.1 1 56
+ 2.203728 1 3 tcp 1040 ------- 2 0.0.2.0 1.0.2.1 1 56
- 2.203728 1 3 tcp 1040 ------- 2 0.0.2.0 1.0.2.1 1 56
r 2.204128 1 3 tcp 40 ------- 2 0.0.2.0 1.0.2.1 0 55
+ 2.20525 3 1 ack 60 ------- 2 1.0.2.0 0.0.0.0 14 54
- 2.20525 3 1 ack 60 ------- 2 1.0.2.0 0.0.0.0 14 54
r 2.207346 3 1 ack 60 ------- 2 1.0.2.0 0.0.0.0 14 54
+ 2.207346 1 0 ack 60 ------- 2 1.0.2.0 0.0.0.0 14 54
- 2.207346 1 0 ack 60 ------- 2 1.0.2.0 0.0.0.0 14 54
r 2.207392 1 3 tcp 1040 ------- 2 0.0.2.0 1.0.2.1 1 56
r 2.209442 1 0 ack 60 ------- 2 1.0.2.0 0.0.0.0 14 54
+ 2.209442 0 1 tcp 1040 ------- 2 0.0.0.0 1.0.2.0 24 58
- 2.209442 0 1 tcp 1040 ------- 2 0.0.0.0 1.0.2.0 24 58
r 2.213106 0 1 tcp 1040 ------- 2 0.0.0.0 1.0.2.0 24 58
+ 2.213106 1 3 tcp 1040 ------- 2 0.0.0.0 1.0.2.0 24 58
- 2.213106 1 3 tcp 1040 ------- 2 0.0.0.0 1.0.2.0 24 58
r 2.21677 1 3 tcp 1040 ------- 2 0.0.0.0 1.0.2.0 24 58
r 2.217241872 _6_ AGT  --- 42 tcp 1040 [13a 3 0 800] ------- [0:0 4194306:0 29 4194306] [16 0] 1 0
s 2.217241872 _6_ AGT  --- 59 ack 40 [0 0 0 0] ------- [4194306:0 0:0 32 0] [16 0] 0 0
+ 2.219346 3 1 ack 60 ------- 2 1.0.2.0 0.0.0.0 15 57
- 2.219346 3 1 ack 60 ------- 2 1.0.2.0 0.0.0.0 15 57
r 2.221442 3 1 ack 60 ------- 2 1.0.2.0 0.0.0.0 15 57
+ 2.221442 1 0 ack 60 ------- 2 1.0.2.0 0.0.0.0 15 57
- 2.221442 1 0 ack 60 ------- 2 1.0.2.0 0.0.0.0 15 57
+ 2.223278 3 1 ack 60 ------- 2 1.0.2.0 0.0.0.0 16 59
- 2.223278 3 1 ack 60 ------- 2 1.0.2.0 0.0.0.0 16 59
r 2.223538 1 0 ack 60 ------- 2 1.0.2.0 0.0.0.0 15 57
+ 2.223538 0 1 tcp 1040 ------- 2 0.0.0.0 1.0.2.0 25 60
- 2.223538 0 1 tcp 1040 ------- 2 0.0.0.0 1.0.2.0 25 60
r 2.225374 3 1 ack 60 ------- 2 1.0.2.0 0.0.0.0 16 59
+ 2.225374 1 0 ack 60 ------- 2 1.0.2.0 0.0.0.0 16 59
- 2.225374 1 0 ack 60 ------- 2 1.0.2.0 0.0.0.0 16 59
r 2.227202 0 1 tcp 1040 ------- 2 0.0.0.0 1.0.2.0 25 60
+ 2.227202 1 3 tcp 1040 ------- 2 0.0.0.0 1.0.2.0 25 60
- 2.227202 1 3 tcp 1040 ------- 2 0.0.0.0 1.0.2.0 25 60
r 2.22747 1 0 ack 60 ------- 2 1.0.2.0 0.0.0.0 16 59
+ 2.22747 0 1 tcp 1040 ------- 2 0.0.0.0 1.0.2.0 26 61
- 2.22747 0 1 tcp 1040 ------- 2 0.0.0.0 1.0.2.0 26 61
r 2.230866 1 3 tcp 1040 ------- 2 0.0.0.0 1.0.2.0 25 60
r 2.231134 0 1 tcp 1040 ------- 2 0.0.0.0 1.0.2.0 26 61
+ 2.231134 1 3 tcp 1040 ------- 2 0.0.0.0 1.0.2.0 26 61
- 2.231134 1 3 tcp 1040 ------- 2 0.0.0.0 1.0.2.0 26 61
r 2.233361976 _6_ AGT  --- 43 tcp 1040 [13a 3 0 800] ------- [0:0 4194306:0 29 4194306] [17 0] 1 0
s 2.233361976 _6_ AGT  --- 62 ack 40 [0 0 0 0] ------- [4194306:0 0:0 32 0] [17 0] 0 0
r 2.234798 1 3 tcp 1040 ------- 2 0.0.0.0 1.0.2.0 26 61
+ 2.235586 3 1 ack 60 ------- 2 1.0.2.0 0.0.0.0 17 62
- 2.235586 3 1 ack 60 ------- 2 1.0.2.0 0.0.0.0 17 62
r 2.237682 3 1 ack 60 ------- 2 1.0.2.0 0.0.0.0 17 62
+ 2.237682 1 0 ack 60 ------- 2 1.0.2.0 0.0.0.0 17 62
- 2.237682 1 0 ack 60 ------- 2 1.0.2.0 0.0.0.0 17 62
r 2.239778 1 0 ack 60 ------- 2 1.0.2.0 0.0.0.0 17 62
+ 2.239778 0 1 tcp 1040 ------- 2 0.0.0.0 1.0.2.0 27 63
- 2.239778 0 1 tcp 1040 ------- 2 0.0.0.0 1.0.2.0 27 63
r 2.243442 0 1 tcp 1040 ------- 2 0.0.0.0 1.0.2.0 27 63
+ 2.243442 1 3 tcp 1040 ------- 2 0.0.0.0 1.0.2.0 27 63
- 2.243442 1 3 tcp 1040 ------- 2 0.0.0.0 1.0.2.0 27 63
r 2.245690021 _6_ AGT  --- 45 tcp 1040 [13a 3 0 800] ------- [0:0 4194306:0 29 4194306] [18 0] 1 0
s 2.245690021 _6_ AGT  --- 64 ack 40 [0 0 0 0] ------- [4194306:0 0:0 32 0] [18 0] 0 0
r 2.247106 1 3 tcp 1040 ------- 2 0.0.0.0 1.0.2.0 27 63
r 2.255514051 _6_ AGT  --- 46 tcp 1040 [13a 3 0 800] ------- [0:0 4194306:0 29 4194306] [19 0] 1 0
s 2.255514051 _6_ AGT  --- 65 ack 40 [0 0 0 0] ------- [4194306:0 0:0 32 0] [19 0] 0 0
+ 2.257678 3 1 ack 60 ------- 2 1.0.2.0 0.0.0.0 18 64
- 2.257678 3 1 ack 60 ------- 2 1.0.2.0 0.0.0.0 18 64
r 2.259774 3 1 ack 60 ------- 2 1.0.2.0 0.0.0.0 18 64
+ 2.259774 1 0 ack 60 ------- 2 1.0.2.0 0.0.0.0 18 64
- 2.259774 1 0 ack 60 ------- 2 1.0.2.0 0.0.0.0 18 64
r 2.26187 1 0 ack 60 ------- 2 1.0.2.0 0.0.0.0 18 64
+ 2.26187 0 1 tcp 1040 ------- 2 0.0.0.0 1.0.2.0 28 66
- 2.26187 0 1 tcp 1040 ------- 2 0.0.0.0 1.0.2.0 28 66
r 2.265534 0 1 tcp 1040 ------- 2 0.0.0.0 1.0.2.0 28 66
+ 2.265534 1 3 tcp 1040 ------- 2 0.0.0.0 1.0.2.0 28 66
- 2.265534 1 3 tcp 1040 ------- 2 0.0.0.0 1.0.2.0 28 66
r 2.267702096 _6_ AGT  --- 47 tcp 1040 [13a 3 0 800] ------- [0:0 4194306:0 29 4194306] [20 0] 1 0
s 2.267702096 _6_ AGT  --- 67 ack 40 [0 0 0 0] ------- [4194306:0 0:0 32 0] [20 0] 0 0
r 2.269198 1 3 tcp 1040 ------- 2 0.0.0.0 1.0.2.0 28 66
r 2.277766125 _6_ AGT  --- 49 tcp 1040 [13a 3 0 800] ------- [0:0 4194306:0 29 4194306] [21 0] 1 0
s 2.277766125 _6_ AGT  --- 68 ack 40 [0 0 0 0] ------- [4194306:0 0:0 32 0] [21 0] 0 0
r 2.287590155 _6_ AGT  --- 51 tcp 1040 [13a 3 0 800] ------- [0:0 4194306:0 29 4194306] [22 0] 1 0
s 2.287590155 _6_ AGT  --- 69 ack 40 [0 0 0 0] ------- [4194306:0 0:0 32 0] [22 0] 0 0
+ 2.289654 3 1 ack 60 ------- 2 1.0.2.0 0.0.0.0 19 65
- 2.289654 3 1 ack 60 ------- 2 1.0.2.0 0.0.0.0 19 65
r 2.29175 3 1 ack 60 ------- 2 1.0.2.0 0.0.0.0 19 65
+ 2.29175 1 0 ack 60 ------- 2 1.0.2.0 0.0.0.0 19 65
- 2.29175 1 0 ack 60 ------- 2 1.0.2.0 0.0.0.0 19 65
r 2.293846 1 0 ack 60 ------- 2 1.0.2.0 0.0.0.0 19 65
+ 2.293846 0 1 tcp 1040 ------- 2 0.0.0.0 1.0.2.0 29 70
- 2.293846 0 1 tcp 1040 ------- 2 0.0.0.0 1.0.2.0 29 70
r 2.29751 0 1 tcp 1040 ------- 2 0.0.0.0 1.0.2.0 29 70
+ 2.29751 1 3 tcp 1040 ------- 2 0.0.0.0 1.0.2.0 29 70
- 2.29751 1 3 tcp 1040 ------- 2 0.0.0.0 1.0.2.0 29 70
r 2.299518200 _6_ AGT  --- 53 tcp 1040 [13a 3 0 800] ------- [0:0 4194306:0 29 4194306] [23 0] 1 0
s 2.299518200 _6_ AGT  --- 71 ack 40 [0 0 0 0] ------- [4194306:0 0:0 32 0] [23 0] 0 0
s 2.300000000 _5_ AGT  --- 72 tcp 40 [0 0 0 0] ------- [4194305:1 1:0 32 0] [0 0] 0 0
s 2.300000000 _5_ AGT  --- 73 tcp 1040 [0 0 0 0] ------- [4194305:1 1:0 32 0] [1 0] 0 0
r 2.301174 1 3 tcp 1040 ------- 2 0.0.0.0 1.0.2.0 29 70
r 2.301502230 _6_ AGT  --- 55 tcp 40 [13a 3 0 800] ------- [2:0 4194306:1 29 4194306] [0 0] 1 0
s 2.301502230 _6_ AGT  --- 74 ack 40 [0 0 0 0] ------- [4194306:1 2:0 32 0] [0 0] 0 0
+ 2.303646 3 1 ack 60 ------- 2 1.0.2.0 0.0.0.0 20 67
- 2.303646 3 1 ack 60 ------- 2 1.0.2.0 0.0.0.0 20 67
r 2.305742 3 1 ack 60 ------- 2 1.0.2.0 0.0.0.0 20 67
+ 2.305742 1 0 ack 60 ------- 2 1.0.2.0 0.0.0.0 20 67
- 2.305742 1 0 ack 60 ------- 2 1.0.2.0 0.0.0.0 20 67
+ 2.30577 3 1 ack 60 ------- 2 1.0.2.0 0.0.0.0 21 68
- 2.30577 3 1 ack 60 ------- 2 1.0.2.0 0.0.0.0 21 68
r 2.307838 1 0 ack 60 ------- 2 1.0.2.0 0.0.0.0 20 67
+ 2.307838 0 1 tcp 1040 ------- 2 0.0.0.0 1.0.2.0 30 75
- 2.307838 0 1 tcp 1040 ------- 2 0.0.0.0 1.0.2.0 30 75
r 2.307866 3 1 ack 60 ------- 2 1.0.2.0 0.0.0.0 21 68
+ 2.307866 1 0 ack 60 ------- 2 1.0.2.0 0.0.0.0 21 68
- 2.307866 1 0 ack 60 ------- 2 1.0.2.0 0.0.0.0 21 68
+ 2.307954 3 1 tcp 60 ------- 2 1.0.1.1 0.0.1.0 0 72
- 2.307954 3 1 tcp 60 ------- 2 1.0.1.1 0.0.1.0 0 72
r 2.309878334 _5_ AGT  --- 39 ack 40 [13a 2 0 800] ------- [0:1 4194305:0 29 4194305] [1 0] 1 0
s 2.309878334 _5_ AGT  --- 76 tcp 1040 [0 0 0 0] ------- [4194305:0 0:1 32 0] [2 0] 0 0
s 2.309878334 _5_ AGT  --- 77 tcp 1040 [0 0 0 0] ------- [4194305:0 0:1 32 0] [3 0] 0 0
s 2.309878334 _5_ AGT  --- 78 tcp 1040 [0 0 0 0] ------- [4194305:0 0:1 32 0] [4 0] 0 0
r 2.309962 1 0 ack 60 ------- 2 1.0.2.0 0.0.0.0 21 68
+ 2.309962 0 1 tcp 1040 ------- 2 0.0.0.0 1.0.2.0 31 79
- 2.309962 0 1 tcp 1040 ------- 2 0.0.0.0 1.0.2.0 31 79
r 2.31005 3 1 tcp 60 ------- 2 1.0.1.1 0.0.1.0 0 72
+ 2.31005 1 3 ack 40 ------- 2 0.0.1.0 1.0.1.1 0 80
- 2.31005 1 3 ack 40 ------- 2 0.0.1.0 1.0.1.1 0 80
r 2.311502 0 1 tcp 1040 ------- 2 0.0.0.0 1.0.2.0 30 75
+ 2.311502 1 3 tcp 1040 ------- 2 0.0.0.0 1.0.2.0 30 75
- 2.311502 1 3 tcp 1040 ------- 2 0.0.0.0 1.0.2.0 30 75
r 2.312114 1 3 ack 40 ------- 2 0.0.1.0 1.0.1.1 0 80
r 2.313626 0 1 tcp 1040 ------- 2 0.0.0.0 1.0.2.0 31 79
+ 2.313626 1 3 tcp 1040 ------- 2 0.0.0.0 1.0.2.0 31 79
- 2.313626 1 3 tcp 1040 ------- 2 0.0.0.0 1.0.2.0 31 79
r 2.315166 1 3 tcp 1040 ------- 2 0.0.0.0 1.0.2.0 30 75
r 2.31729 1 3 tcp 1040 ------- 2 0.0.0.0 1.0.2.0 31 79
r 2.319742364 _6_ AGT  --- 56 tcp 1040 [13a 3 0 800] ------- [2:0 4194306:1 29 4194306] [1 0] 1 0
s 2.319742364 _6_ AGT  --- 81 ack 40 [0 0 0 0] ------- [4194306:1 2:0 32 0] [1 0] 0 0
+ 2.321926 3 1 ack 60 ------- 2 1.0.2.0 0.0.0.0 22 69
- 2.321926 3 1 ack 60 ------- 2 1.0.2.0 0.0.0.0 22 69
r 2.324022 3 1 ack 60 ------- 2 1.0.2.0 0.0.0.0 22 69
+ 2.324022 1 0 ack 60 ------- 2 1.0.2.0 0.0.0.0 22 69
- 2.324022 1 0 ack 60 ------- 2 1.0.2.0 0.0.0.0 22 69
r 2.326118 1 0 ack 60 ------- 2 1.0.2.0 0.0.0.0 22 69
+ 2.326118 0 1 tcp 1040 ------- 2 0.0.0.0 1.0.2.0 32 82
- 2.326118 0 1 tcp 1040 ------- 2 0.0.0.0 1.0.2.0 32 82
r 2.329782 0 1 tcp 1040 ------- 2 0.0.0.0 1.0.2.0 32 82
+ 2.329782 1 3 tcp 1040 ------- 2 0.0.0.0 1.0.2.0 32 82
- 2.329782 1 3 tcp 1040 ------- 2 0.0.0.0 1.0.2.0 32 82
+ 2.33213 3 1 tcp 1060 ------- 2 1.0.1.1 0.0.1.0 1 73
- 2.33213 3 1 tcp 1060 ------- 2 1.0.1.1 0.0.1.0 1 73
r 2.333446 1 3 tcp 1040 ------- 2 0.0.0.0 1.0.2.0 32 82
r 2.335826 3 1 tcp 1060 ------- 2 1.0.1.1 0.0.1.0 1 73
+ 2.335826 1 3 ack 40 ------- 2 0.0.1.0 1.0.1.1 1 83
- 2.335826 1 3 ack 40 ------- 2 0.0.1.0 1.0.1.1 1 83
r 2.33789 1 3 ack 40 ------- 2 0.0.1.0 1.0.1.1 1 83
+ 2.342114 3 1 tcp 1060 ------- 2 1.0.1.0 0.0.0.1 2 76
- 2.342114 3 1 tcp 1060 ------- 2 1.0.1.0 0.0.0.1 2 76
+ 2.345004 3 1 ack 60 ------- 2 1.0.2.0 0.0.0.0 23 71
- 2.345004 3 1 ack 60 ------- 2 1.0.2.0 0.0.0.0 23 71
r 2.34581 3 1 tcp 1060 ------- 2 1.0.1.0 0.0.0.1 2 76
+ 2.34581 1 0 tcp 1060 ------- 2 1.0.1.0 0.0.0.1 2 76
- 2.34581 1 0 tcp 1060 ------- 2 1.0.1.0 0.0.0.1 2 76
r 2.3471 3 1 ack 60 ------- 2 1.0.2.0 0.0.0.0 23 71
+ 2.3471 1 0 ack 60 ------- 2 1.0.2.0 0.0.0.0 23 71
+ 2.347329 3 1 ack 60 ------- 2 1.0.2.1 0.0.2.0 0 74
- 2.347329 3 1 ack 60 ------- 2 1.0.2.1 0.0.2.0 0 74
- 2.347506 1 0 ack 60 ------- 2 1.0.2.0 0.0.0.0 23 71
r 2.349425 3 1 ack 60 ------- 2 1.0.2.1 0.0.2.0 0 74
+ 2.349425 1 2 ack 60 ------- 2 1.0.2.1 0.0.2.0 0 74
- 2.349425 1 2 ack 60 ------- 2 1.0.2.1 0.0.2.0 0 74
r 2.349506 1 0 tcp 1060 ------- 2 1.0.1.0 0.0.0.1 2 76
+ 2.349506 0 1 ack 40 ------- 2 0.0.0.1 1.0.1.0 2 84
- 2.349506 0 1 ack 40 ------- 2 0.0.0.1 1.0.1.0 2 84
r 2.349602 1 0 ack 60 ------- 2 1.0.2.0 0.0.0.0 23 71
+ 2.349602 0 1 tcp 1040 ------- 2 0.0.0.0 1.0.2.0 33 85
- 2.349602 0 1 tcp 1040 ------- 2 0.0.0.0 1.0.2.0 33 85
r 2.351521 1 2 ack 60 ------- 2 1.0.2.1 0.0.2.0 0 74
+ 2.351521 2 1 tcp 1040 ------- 2 0.0.2.0 1.0.2.1 2 86
- 2.351521 2 1 tcp 1040 ------- 2 0.0.2.0 1.0.2.1 2 86
+ 2.351521 2 1 tcp 1040 ------- 2 0.0.2.0 1.0.2.1 3 87
r 2.35157 0 1 ack 40 ------- 2 0.0.0.1 1.0.1.0 2 84
+ 2.35157 1 3 ack 40 ------- 2 0.0.0.1 1.0.1.0 2 84
- 2.35157 1 3 ack 40 ------- 2 0.0.0.1 1.0.1.0 2 84
- 2.353185 2 1 tcp 1040 ------- 2 0.0.2.0 1.0.2.1 3 87
r 2.353266 0 1 tcp 1040 ------- 2 0.0.0.0 1.0.2.0 33 85
+ 2.353266 1 3 tcp 1040 ------- 2 0.0.0.0 1.0.2.0 33 85
- 2.353266 1 3 tcp 1040 ------- 2 0.0.0.0 1.0.2.0 33 85
r 2.353634 1 3 ack 40 ------- 2 0.0.0.1 1.0.1.0 2 84
r 2.355185 2 1 tcp 1040 ------- 2 0.0.2.0 1.0.2.1 2 86
+ 2.355185 1 3 tcp 1040 ------- 2 0.0.2.0 1.0.2.1 2 86
- 2.355185 1 3 tcp 1040 ------- 2 0.0.2.0 1.0.2.1 2 86
r 2.356849 2 1 tcp 1040 ------- 2 0.0.2.0 1.0.2.1 3 87
+ 2.356849 1 3 tcp 1040 ------- 2 0.0.2.0 1.0.2.1 3 87
- 2.356849 1 3 tcp 1040 ------- 2 0.0.2.0 1.0.2.1 3 87
r 2.35693 1 3 tcp 1040 ------- 2 0.0.0.0 1.0.2.0 33 85
+ 2.357493 3 1 tcp 1060 ------- 2 1.0.1.0 0.0.0.1 3 77
- 2.357493 3 1 tcp 1060 ------- 2 1.0.1.0 0.0.0.1 3 77
r 2.358849 1 3 tcp 1040 ------- 2 0.0.2.0 1.0.2.1 2 86
r 2.360513 1 3 tcp 1040 ------- 2 0.0.2.0 1.0.2.1 3 87
r 2.361189 3 1 tcp 1060 ------- 2 1.0.1.0 0.0.0.1 3 77
+ 2.361189 1 0 tcp 1060 ------- 2 1.0.1.0 0.0.0.1 3 77
- 2.361189 1 0 tcp 1060 ------- 2 1.0.1.0 0.0.0.1 3 77
r 2.364885 1 0 tcp 1060 ------- 2 1.0.1.0 0.0.0.1 3 77
+ 2.364885 0 1 ack 40 ------- 2 0.0.0.1 1.0.1.0 3 88
- 2.364885 0 1 ack 40 ------- 2 0.0.0.1 1.0.1.0 3 88
r 2.366949 0 1 ack 40 ------- 2 0.0.0.1 1.0.1.0 3 88
+ 2.366949 1 3 ack 40 ------- 2 0.0.0.1 1.0.1.0 3 88
- 2.366949 1 3 ack 40 ------- 2 0.0.0.1 1.0.1.0 3 88
r 2.367396558 _6_ AGT  --- 58 tcp 1040 [13a 3 0 800] ------- [0:0 4194306:0 29 4194306] [24 0] 1 0
s 2.367396558 _6_ AGT  --- 89 ack 40 [0 0 0 0] ------- [4194306:0 0:0 32 0] [24 0] 0 0
r 2.369013 1 3 ack 40 ------- 2 0.0.0.1 1.0.1.0 3 88
r 2.377260588 _6_ AGT  --- 60 tcp 1040 [13a 3 0 800] ------- [0:0 4194306:0 29 4194306] [25 0] 1 0
s 2.377260588 _6_ AGT  --- 90 ack 40 [0 0 0 0] ------- [4194306:0 0:0 32 0] [25 0] 0 0
+ 2.379265 3 1 ack 60 ------- 2 1.0.2.1 0.0.2.0 1 81
- 2.379265 3 1 ack 60 ------- 2 1.0.2.1 0.0.2.0 1 81
r 2.381361 3 1 ack 60 ------- 2 1.0.2.1 0.0.2.0 1 81